/*--------------------------------*- C++ -*----------------------------------*\
  =========                 |
  \\      /  F ield         | OpenFOAM: The Open Source CFD Toolbox
   \\    /   O peration     | Website:  https://openfoam.org
    \\  /    A nd           | Version:  dev
     \\/     M anipulation  |
\*---------------------------------------------------------------------------*/
FoamFile
{
    version     2.0;
    format      ascii;
    class       volScalarField;
    location    "0.001/heatSource";
    object      cellToRegion;
}
// * * * * * * * * * * * * * * * * * * * * * * * * * * * * * * * * * * * * * //

dimensions      [0 0 0 0 0 0 0];

internalField   uniform 1;

boundaryField
{
    defaultFaces
    {
        type            empty;
    }
    heatSource_to_region1
    {
            type            compressible::turbulentTemperatureCoupledBaffleMixed;
            Tnbr            T;
            kappaMethod     solidThermo;
            value           uniform 294;
    }
}


// ************************************************************************* //
